
Host: eduroam-193-157-177-231.wlan.uio.no

Timers On : Tue May 10 16:47:08 2022
Timers Off: Tue May 10 16:47:38 2022

Wall Time:       29.49 seconds

                                                       Time (seconds)
Module                                       User      System        Wall        Calls
Total PK formation time             :      0.017u      0.000s      0.014w      2 calls
Libint2ERI::Libint2ERI              :      0.000u      0.000s      0.003w      6 calls
HF: Form core H                     :      0.000u      0.000s      0.004w      2 calls
HF: Form S/X                        :      0.000u      0.000s      0.006w      2 calls
HF: Guess                           :      0.117u      0.017s      0.079w      2 calls
SAD Guess                           :      0.100u      0.017s      0.074w      2 calls
HF: Form G                          :      0.000u      0.000s      0.001w     16 calls
JK: D                               :      0.000u      0.000s      0.000w     16 calls
JK: USO2AO                          :      0.000u      0.000s      0.000w     16 calls
JK: JK                              :      0.000u      0.000s      0.000w     16 calls
PK computes JK                      :      0.000u      0.000s      0.000w     16 calls
JK: AO2USO                          :      0.000u      0.000s      0.000w     16 calls
HF: Form F                          :      0.000u      0.000s      0.000w     16 calls
HF: Form D                          :      0.000u      0.000s      0.000w     16 calls
HF: DIIS                            :      0.000u      0.017s      0.010w     14 calls
DIISManager::add_entry              :      0.000u      0.017s      0.002w     14 calls
DIISManager::extrapolate            :      0.000u      0.000s      0.001w     14 calls
bMatrix setup                       :      0.000u      0.000s      0.000w     14 calls
bMatrix pseudoinverse               :      0.000u      0.000s      0.000w     14 calls
New vector                          :      0.000u      0.000s      0.000w     14 calls
HF: Form C                          :      0.000u      0.000s      0.004w     14 calls
CIWave: CIvect write                :      0.000u      0.000s      0.000w     14 calls
CIWave: CIvect read                 :      0.000u      0.000s      0.000w     39 calls
CIWave: s2                          :      0.000u      0.000s      0.000w      2 calls
CIWave: s3                          :      0.000u      0.000s      0.000w      2 calls

--------------------------------------------------------------------------------------
Total PK formation time             :      0.017u      0.000s      0.014w      2 calls
| Libint2ERI::Libint2ERI            :      0.000u      0.000s      0.003w      4 calls
HF: Form core H                     :      0.000u      0.000s      0.004w      2 calls
HF: Form S/X                        :      0.000u      0.000s      0.006w      2 calls
HF: Guess                           :      0.117u      0.017s      0.079w      2 calls
| SAD Guess                         :      0.100u      0.017s      0.074w      2 calls
HF: Form G                          :      0.000u      0.000s      0.001w     16 calls
| JK: D                             :      0.000u      0.000s      0.000w     16 calls
| JK: USO2AO                        :      0.000u      0.000s      0.000w     16 calls
| JK: JK                            :      0.000u      0.000s      0.000w     16 calls
| | PK computes JK                  :      0.000u      0.000s      0.000w     16 calls
| JK: AO2USO                        :      0.000u      0.000s      0.000w     16 calls
HF: Form F                          :      0.000u      0.000s      0.000w     16 calls
HF: Form D                          :      0.000u      0.000s      0.000w     16 calls
HF: DIIS                            :      0.000u      0.017s      0.010w     14 calls
| DIISManager::add_entry            :      0.000u      0.017s      0.002w     14 calls
| DIISManager::extrapolate          :      0.000u      0.000s      0.001w     14 calls
| | bMatrix setup                   :      0.000u      0.000s      0.000w     14 calls
| | bMatrix pseudoinverse           :      0.000u      0.000s      0.000w     14 calls
| | New vector                      :      0.000u      0.000s      0.000w     14 calls
HF: Form C                          :      0.000u      0.000s      0.004w     14 calls
Libint2ERI::Libint2ERI              :      0.000u      0.000s      0.000w      2 calls
CIWave: CIvect write                :      0.000u      0.000s      0.000w     14 calls
CIWave: CIvect read                 :      0.000u      0.000s      0.000w     39 calls
CIWave: s2                          :      0.000u      0.000s      0.000w      2 calls
CIWave: s3                          :      0.000u      0.000s      0.000w      2 calls

**************************************************************************************

Host: eduroam-193-157-177-231.wlan.uio.no

Timers On : Tue May 10 16:58:22 2022
Timers Off: Tue May 10 16:58:25 2022

Wall Time:        3.58 seconds

                                                       Time (seconds)
Module                                       User      System        Wall        Calls
Total PK formation time             :      0.017u      0.000s      0.015w      1 calls
Libint2ERI::Libint2ERI              :      0.017u      0.000s      0.009w      2 calls
HF: Form core H                     :      0.000u      0.000s      0.002w      1 calls
HF: Form S/X                        :      0.000u      0.000s      0.003w      1 calls
HF: Guess                           :      0.050u      0.017s      0.050w      1 calls
SAD Guess                           :      0.050u      0.017s      0.048w      1 calls
HF: Form G                          :      0.000u      0.000s      0.003w    101 calls
JK: D                               :      0.000u      0.000s      0.000w    101 calls
JK: USO2AO                          :      0.000u      0.000s      0.000w    101 calls
JK: JK                              :      0.000u      0.000s      0.001w    101 calls
PK computes JK                      :      0.000u      0.000s      0.001w    101 calls
JK: AO2USO                          :      0.000u      0.000s      0.000w    101 calls
HF: Form F                          :      0.000u      0.000s      0.001w    101 calls
HF: Form D                          :      0.000u      0.000s      0.000w    101 calls
HF: DIIS                            :      0.067u      0.017s      0.044w    100 calls
DIISManager::add_entry              :      0.000u      0.000s      0.002w    100 calls
DIISManager::extrapolate            :      0.000u      0.017s      0.009w    100 calls
bMatrix setup                       :      0.000u      0.017s      0.004w    100 calls
bMatrix pseudoinverse               :      0.000u      0.000s      0.002w    100 calls
New vector                          :      0.000u      0.000s      0.002w    100 calls
HF: Form C                          :      0.017u      0.000s      0.017w    100 calls

--------------------------------------------------------------------------------------
Total PK formation time             :      0.017u      0.000s      0.015w      1 calls
| Libint2ERI::Libint2ERI            :      0.017u      0.000s      0.009w      2 calls
HF: Form core H                     :      0.000u      0.000s      0.002w      1 calls
HF: Form S/X                        :      0.000u      0.000s      0.003w      1 calls
HF: Guess                           :      0.050u      0.017s      0.050w      1 calls
| SAD Guess                         :      0.050u      0.017s      0.048w      1 calls
HF: Form G                          :      0.000u      0.000s      0.003w    101 calls
| JK: D                             :      0.000u      0.000s      0.000w    101 calls
| JK: USO2AO                        :      0.000u      0.000s      0.000w    101 calls
| JK: JK                            :      0.000u      0.000s      0.001w    101 calls
| | PK computes JK                  :      0.000u      0.000s      0.001w    101 calls
| JK: AO2USO                        :      0.000u      0.000s      0.000w    101 calls
HF: Form F                          :      0.000u      0.000s      0.001w    101 calls
HF: Form D                          :      0.000u      0.000s      0.000w    101 calls
HF: DIIS                            :      0.067u      0.017s      0.044w    100 calls
| DIISManager::add_entry            :      0.000u      0.000s      0.002w    100 calls
| DIISManager::extrapolate          :      0.000u      0.017s      0.009w    100 calls
| | bMatrix setup                   :      0.000u      0.017s      0.004w    100 calls
| | bMatrix pseudoinverse           :      0.000u      0.000s      0.002w    100 calls
| | New vector                      :      0.000u      0.000s      0.002w    100 calls
HF: Form C                          :      0.017u      0.000s      0.017w    100 calls

**************************************************************************************

Host: eduroam-193-157-177-231.wlan.uio.no

Timers On : Tue May 10 16:59:23 2022
Timers Off: Tue May 10 16:59:25 2022

Wall Time:        2.75 seconds

                                                       Time (seconds)
Module                                       User      System        Wall        Calls
Total PK formation time             :      0.017u      0.017s      0.018w      1 calls
Libint2ERI::Libint2ERI              :      0.000u      0.017s      0.014w      3 calls
HF: Form core H                     :      0.000u      0.000s      0.002w      1 calls
HF: Form S/X                        :      0.000u      0.000s      0.000w      1 calls
HF: Guess                           :      0.017u      0.000s      0.021w      1 calls
SAD Guess                           :      0.017u      0.000s      0.019w      1 calls
HF: Form G                          :      0.000u      0.000s      0.001w      3 calls
JK: D                               :      0.000u      0.000s      0.000w      3 calls
JK: USO2AO                          :      0.000u      0.000s      0.000w      3 calls
JK: JK                              :      0.000u      0.000s      0.000w      3 calls
PK computes JK                      :      0.000u      0.000s      0.000w      3 calls
JK: AO2USO                          :      0.000u      0.000s      0.000w      3 calls
HF: Form F                          :      0.000u      0.000s      0.000w      3 calls
HF: Form D                          :      0.000u      0.000s      0.000w      3 calls
HF: DIIS                            :      0.000u      0.000s      0.001w      2 calls
DIISManager::add_entry              :      0.000u      0.000s      0.000w      2 calls
DIISManager::extrapolate            :      0.000u      0.000s      0.000w      2 calls
bMatrix setup                       :      0.000u      0.000s      0.000w      2 calls
bMatrix pseudoinverse               :      0.000u      0.000s      0.000w      2 calls
New vector                          :      0.000u      0.000s      0.000w      2 calls
HF: Form C                          :      0.000u      0.000s      0.000w      2 calls

--------------------------------------------------------------------------------------
Total PK formation time             :      0.017u      0.017s      0.018w      1 calls
| Libint2ERI::Libint2ERI            :      0.000u      0.017s      0.014w      2 calls
HF: Form core H                     :      0.000u      0.000s      0.002w      1 calls
HF: Form S/X                        :      0.000u      0.000s      0.000w      1 calls
HF: Guess                           :      0.017u      0.000s      0.021w      1 calls
| SAD Guess                         :      0.017u      0.000s      0.019w      1 calls
HF: Form G                          :      0.000u      0.000s      0.001w      3 calls
| JK: D                             :      0.000u      0.000s      0.000w      3 calls
| JK: USO2AO                        :      0.000u      0.000s      0.000w      3 calls
| JK: JK                            :      0.000u      0.000s      0.000w      3 calls
| | PK computes JK                  :      0.000u      0.000s      0.000w      3 calls
| JK: AO2USO                        :      0.000u      0.000s      0.000w      3 calls
HF: Form F                          :      0.000u      0.000s      0.000w      3 calls
HF: Form D                          :      0.000u      0.000s      0.000w      3 calls
HF: DIIS                            :      0.000u      0.000s      0.001w      2 calls
| DIISManager::add_entry            :      0.000u      0.000s      0.000w      2 calls
| DIISManager::extrapolate          :      0.000u      0.000s      0.000w      2 calls
| | bMatrix setup                   :      0.000u      0.000s      0.000w      2 calls
| | bMatrix pseudoinverse           :      0.000u      0.000s      0.000w      2 calls
| | New vector                      :      0.000u      0.000s      0.000w      2 calls
HF: Form C                          :      0.000u      0.000s      0.000w      2 calls
Libint2ERI::Libint2ERI              :      0.000u      0.000s      0.000w      1 calls

**************************************************************************************

Host: eduroam-193-157-177-231.wlan.uio.no

Timers On : Tue May 10 17:01:12 2022
Timers Off: Tue May 10 17:01:16 2022

Wall Time:        3.23 seconds

                                                       Time (seconds)
Module                                       User      System        Wall        Calls

--------------------------------------------------------------------------------------

**************************************************************************************

Host: eduroam-193-157-177-231.wlan.uio.no

Timers On : Tue May 10 17:01:40 2022
Timers Off: Tue May 10 17:01:43 2022

Wall Time:        2.48 seconds

                                                       Time (seconds)
Module                                       User      System        Wall        Calls

--------------------------------------------------------------------------------------

**************************************************************************************

Host: eduroam-193-157-177-231.wlan.uio.no

Timers On : Tue May 10 17:05:20 2022
Timers Off: Tue May 10 17:05:23 2022

Wall Time:        2.73 seconds

                                                       Time (seconds)
Module                                       User      System        Wall        Calls
Total PK formation time             :      0.017u      0.017s      0.018w      1 calls
Libint2ERI::Libint2ERI              :      0.000u      0.017s      0.013w      3 calls
HF: Form core H                     :      0.000u      0.000s      0.006w      1 calls
HF: Form S/X                        :      0.000u      0.000s      0.004w      1 calls
HF: Guess                           :      0.050u      0.017s      0.052w      1 calls
SAD Guess                           :      0.050u      0.017s      0.049w      1 calls
HF: Form G                          :      0.000u      0.000s      0.009w      8 calls
JK: D                               :      0.000u      0.000s      0.000w      8 calls
JK: USO2AO                          :      0.000u      0.000s      0.009w      8 calls
JK: JK                              :      0.000u      0.000s      0.000w      8 calls
PK computes JK                      :      0.000u      0.000s      0.000w      8 calls
JK: AO2USO                          :      0.000u      0.000s      0.000w      8 calls
HF: Form F                          :      0.000u      0.000s      0.002w      8 calls
HF: Form D                          :      0.000u      0.000s      0.000w      8 calls
HF: DIIS                            :      0.017u      0.000s      0.022w      7 calls
DIISManager::add_entry              :      0.000u      0.000s      0.009w      7 calls
DIISManager::extrapolate            :      0.000u      0.000s      0.001w      7 calls
bMatrix setup                       :      0.000u      0.000s      0.000w      7 calls
bMatrix pseudoinverse               :      0.000u      0.000s      0.000w      7 calls
New vector                          :      0.000u      0.000s      0.000w      7 calls
HF: Form C                          :      0.000u      0.000s      0.002w      7 calls

--------------------------------------------------------------------------------------
Total PK formation time             :      0.017u      0.017s      0.018w      1 calls
| Libint2ERI::Libint2ERI            :      0.000u      0.017s      0.013w      2 calls
HF: Form core H                     :      0.000u      0.000s      0.006w      1 calls
HF: Form S/X                        :      0.000u      0.000s      0.004w      1 calls
HF: Guess                           :      0.050u      0.017s      0.052w      1 calls
| SAD Guess                         :      0.050u      0.017s      0.049w      1 calls
HF: Form G                          :      0.000u      0.000s      0.009w      8 calls
| JK: D                             :      0.000u      0.000s      0.000w      8 calls
| JK: USO2AO                        :      0.000u      0.000s      0.009w      8 calls
| JK: JK                            :      0.000u      0.000s      0.000w      8 calls
| | PK computes JK                  :      0.000u      0.000s      0.000w      8 calls
| JK: AO2USO                        :      0.000u      0.000s      0.000w      8 calls
HF: Form F                          :      0.000u      0.000s      0.002w      8 calls
HF: Form D                          :      0.000u      0.000s      0.000w      8 calls
HF: DIIS                            :      0.017u      0.000s      0.022w      7 calls
| DIISManager::add_entry            :      0.000u      0.000s      0.009w      7 calls
| DIISManager::extrapolate          :      0.000u      0.000s      0.001w      7 calls
| | bMatrix setup                   :      0.000u      0.000s      0.000w      7 calls
| | bMatrix pseudoinverse           :      0.000u      0.000s      0.000w      7 calls
| | New vector                      :      0.000u      0.000s      0.000w      7 calls
HF: Form C                          :      0.000u      0.000s      0.002w      7 calls
Libint2ERI::Libint2ERI              :      0.000u      0.000s      0.000w      1 calls

**************************************************************************************

Host: eduroam-193-157-177-231.wlan.uio.no

Timers On : Tue May 10 17:05:51 2022
Timers Off: Tue May 10 17:05:53 2022

Wall Time:        2.34 seconds

                                                       Time (seconds)
Module                                       User      System        Wall        Calls
Total PK formation time             :      0.017u      0.000s      0.005w      1 calls
Libint2ERI::Libint2ERI              :      0.000u      0.000s      0.002w      3 calls
HF: Form core H                     :      0.000u      0.000s      0.001w      1 calls
HF: Form S/X                        :      0.000u      0.000s      0.000w      1 calls
HF: Guess                           :      0.033u      0.000s      0.028w      1 calls
SAD Guess                           :      0.033u      0.000s      0.026w      1 calls
HF: Form G                          :      0.000u      0.000s      0.000w      8 calls
JK: D                               :      0.000u      0.000s      0.000w      8 calls
JK: USO2AO                          :      0.000u      0.000s      0.000w      8 calls
JK: JK                              :      0.000u      0.000s      0.000w      8 calls
PK computes JK                      :      0.000u      0.000s      0.000w      8 calls
JK: AO2USO                          :      0.000u      0.000s      0.000w      8 calls
HF: Form F                          :      0.000u      0.000s      0.000w      8 calls
HF: Form D                          :      0.000u      0.000s      0.000w      8 calls
HF: DIIS                            :      0.000u      0.000s      0.003w      7 calls
DIISManager::add_entry              :      0.000u      0.000s      0.001w      7 calls
DIISManager::extrapolate            :      0.000u      0.000s      0.000w      7 calls
bMatrix setup                       :      0.000u      0.000s      0.000w      7 calls
bMatrix pseudoinverse               :      0.000u      0.000s      0.000w      7 calls
New vector                          :      0.000u      0.000s      0.000w      7 calls
HF: Form C                          :      0.000u      0.000s      0.001w      7 calls

--------------------------------------------------------------------------------------
Total PK formation time             :      0.017u      0.000s      0.005w      1 calls
| Libint2ERI::Libint2ERI            :      0.000u      0.000s      0.001w      2 calls
HF: Form core H                     :      0.000u      0.000s      0.001w      1 calls
HF: Form S/X                        :      0.000u      0.000s      0.000w      1 calls
HF: Guess                           :      0.033u      0.000s      0.028w      1 calls
| SAD Guess                         :      0.033u      0.000s      0.026w      1 calls
HF: Form G                          :      0.000u      0.000s      0.000w      8 calls
| JK: D                             :      0.000u      0.000s      0.000w      8 calls
| JK: USO2AO                        :      0.000u      0.000s      0.000w      8 calls
| JK: JK                            :      0.000u      0.000s      0.000w      8 calls
| | PK computes JK                  :      0.000u      0.000s      0.000w      8 calls
| JK: AO2USO                        :      0.000u      0.000s      0.000w      8 calls
HF: Form F                          :      0.000u      0.000s      0.000w      8 calls
HF: Form D                          :      0.000u      0.000s      0.000w      8 calls
HF: DIIS                            :      0.000u      0.000s      0.003w      7 calls
| DIISManager::add_entry            :      0.000u      0.000s      0.001w      7 calls
| DIISManager::extrapolate          :      0.000u      0.000s      0.000w      7 calls
| | bMatrix setup                   :      0.000u      0.000s      0.000w      7 calls
| | bMatrix pseudoinverse           :      0.000u      0.000s      0.000w      7 calls
| | New vector                      :      0.000u      0.000s      0.000w      7 calls
HF: Form C                          :      0.000u      0.000s      0.001w      7 calls
Libint2ERI::Libint2ERI              :      0.000u      0.000s      0.000w      1 calls

**************************************************************************************

Host: eduroam-193-157-177-231.wlan.uio.no

Timers On : Tue May 10 17:06:09 2022
Timers Off: Tue May 10 17:06:12 2022

Wall Time:        3.45 seconds

                                                       Time (seconds)
Module                                       User      System        Wall        Calls
Total PK formation time             :      0.000u      0.000s      0.012w      2 calls
Libint2ERI::Libint2ERI              :      0.000u      0.000s      0.003w      6 calls
HF: Form core H                     :      0.000u      0.000s      0.002w      2 calls
HF: Form S/X                        :      0.000u      0.000s      0.001w      2 calls
HF: Guess                           :      0.100u      0.017s      0.061w      2 calls
SAD Guess                           :      0.067u      0.017s      0.057w      2 calls
HF: Form G                          :      0.000u      0.017s      0.001w     16 calls
JK: D                               :      0.000u      0.000s      0.000w     16 calls
JK: USO2AO                          :      0.000u      0.000s      0.000w     16 calls
JK: JK                              :      0.000u      0.017s      0.000w     16 calls
PK computes JK                      :      0.000u      0.017s      0.000w     16 calls
JK: AO2USO                          :      0.000u      0.000s      0.000w     16 calls
HF: Form F                          :      0.000u      0.000s      0.000w     16 calls
HF: Form D                          :      0.000u      0.000s      0.000w     16 calls
HF: DIIS                            :      0.017u      0.000s      0.006w     14 calls
DIISManager::add_entry              :      0.000u      0.000s      0.001w     14 calls
DIISManager::extrapolate            :      0.000u      0.000s      0.001w     14 calls
bMatrix setup                       :      0.000u      0.000s      0.000w     14 calls
bMatrix pseudoinverse               :      0.000u      0.000s      0.000w     14 calls
New vector                          :      0.000u      0.000s      0.000w     14 calls
HF: Form C                          :      0.000u      0.000s      0.002w     14 calls
CIWave: CIvect write                :      0.000u      0.000s      0.000w     14 calls
CIWave: CIvect read                 :      0.000u      0.000s      0.000w     39 calls
CIWave: s2                          :      0.000u      0.000s      0.000w      2 calls
CIWave: s3                          :      0.000u      0.000s      0.000w      2 calls

--------------------------------------------------------------------------------------
Total PK formation time             :      0.000u      0.000s      0.012w      2 calls
| Libint2ERI::Libint2ERI            :      0.000u      0.000s      0.002w      4 calls
HF: Form core H                     :      0.000u      0.000s      0.002w      2 calls
HF: Form S/X                        :      0.000u      0.000s      0.001w      2 calls
HF: Guess                           :      0.100u      0.017s      0.061w      2 calls
| SAD Guess                         :      0.067u      0.017s      0.057w      2 calls
HF: Form G                          :      0.000u      0.017s      0.001w     16 calls
| JK: D                             :      0.000u      0.000s      0.000w     16 calls
| JK: USO2AO                        :      0.000u      0.000s      0.000w     16 calls
| JK: JK                            :      0.000u      0.017s      0.000w     16 calls
| | PK computes JK                  :      0.000u      0.017s      0.000w     16 calls
| JK: AO2USO                        :      0.000u      0.000s      0.000w     16 calls
HF: Form F                          :      0.000u      0.000s      0.000w     16 calls
HF: Form D                          :      0.000u      0.000s      0.000w     16 calls
HF: DIIS                            :      0.017u      0.000s      0.006w     14 calls
| DIISManager::add_entry            :      0.000u      0.000s      0.001w     14 calls
| DIISManager::extrapolate          :      0.000u      0.000s      0.001w     14 calls
| | bMatrix setup                   :      0.000u      0.000s      0.000w     14 calls
| | bMatrix pseudoinverse           :      0.000u      0.000s      0.000w     14 calls
| | New vector                      :      0.000u      0.000s      0.000w     14 calls
HF: Form C                          :      0.000u      0.000s      0.002w     14 calls
Libint2ERI::Libint2ERI              :      0.000u      0.000s      0.000w      2 calls
CIWave: CIvect write                :      0.000u      0.000s      0.000w     14 calls
CIWave: CIvect read                 :      0.000u      0.000s      0.000w     39 calls
CIWave: s2                          :      0.000u      0.000s      0.000w      2 calls
CIWave: s3                          :      0.000u      0.000s      0.000w      2 calls

**************************************************************************************

Host: eduroam-193-157-177-231.wlan.uio.no

Timers On : Tue May 10 17:06:16 2022
Timers Off: Tue May 10 17:06:19 2022

Wall Time:        2.46 seconds

                                                       Time (seconds)
Module                                       User      System        Wall        Calls
Total PK formation time             :      0.033u      0.000s      0.009w      2 calls
Libint2ERI::Libint2ERI              :      0.000u      0.000s      0.002w      6 calls
HF: Form core H                     :      0.000u      0.000s      0.002w      2 calls
HF: Form S/X                        :      0.000u      0.000s      0.000w      2 calls
HF: Guess                           :      0.067u      0.000s      0.053w      2 calls
SAD Guess                           :      0.067u      0.000s      0.050w      2 calls
HF: Form G                          :      0.000u      0.000s      0.001w     16 calls
JK: D                               :      0.000u      0.000s      0.000w     16 calls
JK: USO2AO                          :      0.000u      0.000s      0.000w     16 calls
JK: JK                              :      0.000u      0.000s      0.000w     16 calls
PK computes JK                      :      0.000u      0.000s      0.000w     16 calls
JK: AO2USO                          :      0.000u      0.000s      0.000w     16 calls
HF: Form F                          :      0.000u      0.000s      0.000w     16 calls
HF: Form D                          :      0.000u      0.000s      0.000w     16 calls
HF: DIIS                            :      0.017u      0.000s      0.006w     14 calls
DIISManager::add_entry              :      0.000u      0.000s      0.001w     14 calls
DIISManager::extrapolate            :      0.000u      0.000s      0.001w     14 calls
bMatrix setup                       :      0.000u      0.000s      0.000w     14 calls
bMatrix pseudoinverse               :      0.000u      0.000s      0.000w     14 calls
New vector                          :      0.000u      0.000s      0.000w     14 calls
HF: Form C                          :      0.000u      0.000s      0.002w     14 calls
CIWave: CIvect write                :      0.000u      0.000s      0.000w     14 calls
CIWave: CIvect read                 :      0.000u      0.000s      0.000w     39 calls
CIWave: s2                          :      0.000u      0.000s      0.000w      2 calls
CIWave: s3                          :      0.000u      0.000s      0.000w      2 calls

--------------------------------------------------------------------------------------
Total PK formation time             :      0.033u      0.000s      0.009w      2 calls
| Libint2ERI::Libint2ERI            :      0.000u      0.000s      0.002w      4 calls
HF: Form core H                     :      0.000u      0.000s      0.002w      2 calls
HF: Form S/X                        :      0.000u      0.000s      0.000w      2 calls
HF: Guess                           :      0.067u      0.000s      0.053w      2 calls
| SAD Guess                         :      0.067u      0.000s      0.050w      2 calls
HF: Form G                          :      0.000u      0.000s      0.001w     16 calls
| JK: D                             :      0.000u      0.000s      0.000w     16 calls
| JK: USO2AO                        :      0.000u      0.000s      0.000w     16 calls
| JK: JK                            :      0.000u      0.000s      0.000w     16 calls
| | PK computes JK                  :      0.000u      0.000s      0.000w     16 calls
| JK: AO2USO                        :      0.000u      0.000s      0.000w     16 calls
HF: Form F                          :      0.000u      0.000s      0.000w     16 calls
HF: Form D                          :      0.000u      0.000s      0.000w     16 calls
HF: DIIS                            :      0.017u      0.000s      0.006w     14 calls
| DIISManager::add_entry            :      0.000u      0.000s      0.001w     14 calls
| DIISManager::extrapolate          :      0.000u      0.000s      0.001w     14 calls
| | bMatrix setup                   :      0.000u      0.000s      0.000w     14 calls
| | bMatrix pseudoinverse           :      0.000u      0.000s      0.000w     14 calls
| | New vector                      :      0.000u      0.000s      0.000w     14 calls
HF: Form C                          :      0.000u      0.000s      0.002w     14 calls
Libint2ERI::Libint2ERI              :      0.000u      0.000s      0.000w      2 calls
CIWave: CIvect write                :      0.000u      0.000s      0.000w     14 calls
CIWave: CIvect read                 :      0.000u      0.000s      0.000w     39 calls
CIWave: s2                          :      0.000u      0.000s      0.000w      2 calls
CIWave: s3                          :      0.000u      0.000s      0.000w      2 calls

**************************************************************************************

Host: eduroam-193-157-177-231.wlan.uio.no

Timers On : Tue May 10 17:07:48 2022
Timers Off: Tue May 10 17:07:52 2022

Wall Time:        3.93 seconds

                                                       Time (seconds)
Module                                       User      System        Wall        Calls
Total PK formation time             :      0.000u      0.000s      0.023w      2 calls
Libint2ERI::Libint2ERI              :      0.000u      0.000s      0.013w      6 calls
HF: Form core H                     :      0.000u      0.000s      0.003w      2 calls
HF: Form S/X                        :      0.000u      0.000s      0.001w      2 calls
HF: Guess                           :      0.100u      0.017s      0.069w      2 calls
SAD Guess                           :      0.067u      0.017s      0.064w      2 calls
HF: Form G                          :      0.000u      0.000s      0.001w     16 calls
JK: D                               :      0.000u      0.000s      0.000w     16 calls
JK: USO2AO                          :      0.000u      0.000s      0.000w     16 calls
JK: JK                              :      0.000u      0.000s      0.001w     16 calls
PK computes JK                      :      0.000u      0.000s      0.001w     16 calls
JK: AO2USO                          :      0.000u      0.000s      0.000w     16 calls
HF: Form F                          :      0.000u      0.000s      0.000w     16 calls
HF: Form D                          :      0.000u      0.000s      0.000w     16 calls
HF: DIIS                            :      0.017u      0.000s      0.008w     14 calls
DIISManager::add_entry              :      0.017u      0.000s      0.001w     14 calls
DIISManager::extrapolate            :      0.000u      0.000s      0.001w     14 calls
bMatrix setup                       :      0.000u      0.000s      0.000w     14 calls
bMatrix pseudoinverse               :      0.000u      0.000s      0.000w     14 calls
New vector                          :      0.000u      0.000s      0.000w     14 calls
HF: Form C                          :      0.017u      0.000s      0.003w     14 calls
CIWave: CIvect write                :      0.000u      0.000s      0.000w     14 calls
CIWave: CIvect read                 :      0.000u      0.000s      0.000w     39 calls
CIWave: s2                          :      0.000u      0.000s      0.000w      2 calls
CIWave: s3                          :      0.017u      0.000s      0.000w      2 calls

--------------------------------------------------------------------------------------
Total PK formation time             :      0.000u      0.000s      0.023w      2 calls
| Libint2ERI::Libint2ERI            :      0.000u      0.000s      0.012w      4 calls
HF: Form core H                     :      0.000u      0.000s      0.003w      2 calls
HF: Form S/X                        :      0.000u      0.000s      0.001w      2 calls
HF: Guess                           :      0.100u      0.017s      0.069w      2 calls
| SAD Guess                         :      0.067u      0.017s      0.064w      2 calls
HF: Form G                          :      0.000u      0.000s      0.001w     16 calls
| JK: D                             :      0.000u      0.000s      0.000w     16 calls
| JK: USO2AO                        :      0.000u      0.000s      0.000w     16 calls
| JK: JK                            :      0.000u      0.000s      0.001w     16 calls
| | PK computes JK                  :      0.000u      0.000s      0.001w     16 calls
| JK: AO2USO                        :      0.000u      0.000s      0.000w     16 calls
HF: Form F                          :      0.000u      0.000s      0.000w     16 calls
HF: Form D                          :      0.000u      0.000s      0.000w     16 calls
HF: DIIS                            :      0.017u      0.000s      0.008w     14 calls
| DIISManager::add_entry            :      0.017u      0.000s      0.001w     14 calls
| DIISManager::extrapolate          :      0.000u      0.000s      0.001w     14 calls
| | bMatrix setup                   :      0.000u      0.000s      0.000w     14 calls
| | bMatrix pseudoinverse           :      0.000u      0.000s      0.000w     14 calls
| | New vector                      :      0.000u      0.000s      0.000w     14 calls
HF: Form C                          :      0.017u      0.000s      0.003w     14 calls
Libint2ERI::Libint2ERI              :      0.000u      0.000s      0.000w      2 calls
CIWave: CIvect write                :      0.000u      0.000s      0.000w     14 calls
CIWave: CIvect read                 :      0.000u      0.000s      0.000w     39 calls
CIWave: s2                          :      0.000u      0.000s      0.000w      2 calls
CIWave: s3                          :      0.017u      0.000s      0.000w      2 calls

**************************************************************************************

Host: eduroam-193-157-177-231.wlan.uio.no

Timers On : Tue May 10 17:12:38 2022
Timers Off: Tue May 10 17:12:41 2022

Wall Time:        2.54 seconds

                                                       Time (seconds)
Module                                       User      System        Wall        Calls

--------------------------------------------------------------------------------------

**************************************************************************************

Host: eduroam-193-157-177-231.wlan.uio.no

Timers On : Tue May 10 17:13:39 2022
Timers Off: Tue May 10 17:13:41 2022

Wall Time:        2.15 seconds

                                                       Time (seconds)
Module                                       User      System        Wall        Calls

--------------------------------------------------------------------------------------

**************************************************************************************

Host: eduroam-193-157-177-231.wlan.uio.no

Timers On : Tue May 10 17:13:44 2022
Timers Off: Tue May 10 17:13:46 2022

Wall Time:        1.57 seconds

                                                       Time (seconds)
Module                                       User      System        Wall        Calls

--------------------------------------------------------------------------------------

**************************************************************************************

Host: eduroam-193-157-177-231.wlan.uio.no

Timers On : Tue May 10 17:13:55 2022
Timers Off: Tue May 10 17:13:56 2022

Wall Time:        1.69 seconds

                                                       Time (seconds)
Module                                       User      System        Wall        Calls

--------------------------------------------------------------------------------------

**************************************************************************************

Host: eduroam-193-157-177-231.wlan.uio.no

Timers On : Tue May 10 17:14:24 2022
Timers Off: Tue May 10 17:14:26 2022

Wall Time:        2.38 seconds

                                                       Time (seconds)
Module                                       User      System        Wall        Calls

--------------------------------------------------------------------------------------

**************************************************************************************

Host: eduroam-193-157-251-3.wlan.uio.no

Timers On : Wed May 11 14:30:22 2022
Timers Off: Wed May 11 14:30:25 2022

Wall Time:        3.90 seconds

                                                       Time (seconds)
Module                                       User      System        Wall        Calls
Total PK formation time             :      0.000u      0.000s      0.023w      2 calls
Libint2ERI::Libint2ERI              :      0.000u      0.000s      0.014w      6 calls
HF: Form core H                     :      0.000u      0.000s      0.003w      2 calls
HF: Form S/X                        :      0.000u      0.000s      0.003w      2 calls
HF: Guess                           :      0.100u      0.017s      0.069w      2 calls
SAD Guess                           :      0.083u      0.017s      0.065w      2 calls
HF: Form G                          :      0.000u      0.000s      0.001w     16 calls
JK: D                               :      0.000u      0.000s      0.000w     16 calls
JK: USO2AO                          :      0.000u      0.000s      0.000w     16 calls
JK: JK                              :      0.000u      0.000s      0.000w     16 calls
PK computes JK                      :      0.000u      0.000s      0.000w     16 calls
JK: AO2USO                          :      0.000u      0.000s      0.000w     16 calls
HF: Form F                          :      0.000u      0.000s      0.000w     16 calls
HF: Form D                          :      0.000u      0.000s      0.000w     16 calls
HF: DIIS                            :      0.000u      0.000s      0.007w     14 calls
DIISManager::add_entry              :      0.000u      0.000s      0.001w     14 calls
DIISManager::extrapolate            :      0.000u      0.000s      0.001w     14 calls
bMatrix setup                       :      0.000u      0.000s      0.000w     14 calls
bMatrix pseudoinverse               :      0.000u      0.000s      0.000w     14 calls
New vector                          :      0.000u      0.000s      0.000w     14 calls
HF: Form C                          :      0.000u      0.000s      0.003w     14 calls
CIWave: CIvect write                :      0.000u      0.000s      0.000w     14 calls
CIWave: CIvect read                 :      0.000u      0.000s      0.000w     39 calls
CIWave: s2                          :      0.000u      0.000s      0.000w      2 calls
CIWave: s3                          :      0.000u      0.000s      0.000w      2 calls

--------------------------------------------------------------------------------------
Total PK formation time             :      0.000u      0.000s      0.023w      2 calls
| Libint2ERI::Libint2ERI            :      0.000u      0.000s      0.013w      4 calls
HF: Form core H                     :      0.000u      0.000s      0.003w      2 calls
HF: Form S/X                        :      0.000u      0.000s      0.003w      2 calls
HF: Guess                           :      0.100u      0.017s      0.069w      2 calls
| SAD Guess                         :      0.083u      0.017s      0.065w      2 calls
HF: Form G                          :      0.000u      0.000s      0.001w     16 calls
| JK: D                             :      0.000u      0.000s      0.000w     16 calls
| JK: USO2AO                        :      0.000u      0.000s      0.000w     16 calls
| JK: JK                            :      0.000u      0.000s      0.000w     16 calls
| | PK computes JK                  :      0.000u      0.000s      0.000w     16 calls
| JK: AO2USO                        :      0.000u      0.000s      0.000w     16 calls
HF: Form F                          :      0.000u      0.000s      0.000w     16 calls
HF: Form D                          :      0.000u      0.000s      0.000w     16 calls
HF: DIIS                            :      0.000u      0.000s      0.007w     14 calls
| DIISManager::add_entry            :      0.000u      0.000s      0.001w     14 calls
| DIISManager::extrapolate          :      0.000u      0.000s      0.001w     14 calls
| | bMatrix setup                   :      0.000u      0.000s      0.000w     14 calls
| | bMatrix pseudoinverse           :      0.000u      0.000s      0.000w     14 calls
| | New vector                      :      0.000u      0.000s      0.000w     14 calls
HF: Form C                          :      0.000u      0.000s      0.003w     14 calls
Libint2ERI::Libint2ERI              :      0.000u      0.000s      0.001w      2 calls
CIWave: CIvect write                :      0.000u      0.000s      0.000w     14 calls
CIWave: CIvect read                 :      0.000u      0.000s      0.000w     39 calls
CIWave: s2                          :      0.000u      0.000s      0.000w      2 calls
CIWave: s3                          :      0.000u      0.000s      0.000w      2 calls

**************************************************************************************

Host: eduroam-193-157-251-3.wlan.uio.no

Timers On : Wed May 11 14:41:10 2022
Timers Off: Wed May 11 14:41:12 2022

Wall Time:        2.51 seconds

                                                       Time (seconds)
Module                                       User      System        Wall        Calls

--------------------------------------------------------------------------------------

**************************************************************************************

Host: eduroam-193-157-251-3.wlan.uio.no

Timers On : Wed May 11 14:41:42 2022
Timers Off: Wed May 11 14:41:44 2022

Wall Time:        2.19 seconds

                                                       Time (seconds)
Module                                       User      System        Wall        Calls

--------------------------------------------------------------------------------------

**************************************************************************************

Host: eduroam-193-157-251-3.wlan.uio.no

Timers On : Wed May 11 14:44:05 2022
Timers Off: Wed May 11 14:44:09 2022

Wall Time:        4.18 seconds

                                                       Time (seconds)
Module                                       User      System        Wall        Calls
DFH: sparsity prep                  :      0.017u      0.017s      0.031w      1 calls
Libint2ERI::Libint2ERI              :      0.017u      0.017s      0.031w      3 calls
DFH: initialize()                   :      0.033u      0.017s      0.035w      1 calls
DFH: AO Construction                :      0.017u      0.000s      0.011w      1 calls
DFH: AO-Met. Contraction            :      0.000u      0.000s      0.001w      1 calls
HF: Form core H                     :      0.000u      0.000s      0.005w      1 calls
HF: Form S/X                        :      0.000u      0.000s      0.002w      1 calls
HF: Guess                           :      0.067u      0.017s      0.054w      1 calls
SAD Guess                           :      0.067u      0.017s      0.051w      1 calls
HF: Form G                          :      0.000u      0.000s      0.002w      9 calls
JK: D                               :      0.000u      0.000s      0.000w      9 calls
JK: USO2AO                          :      0.000u      0.000s      0.000w      9 calls
JK: JK                              :      0.000u      0.000s      0.001w      9 calls
DFH: compute_JK()                   :      0.000u      0.000s      0.001w      9 calls
DFH: Grabbing AOs                   :      0.000u      0.000s      0.000w      9 calls
DFH: compute_J                      :      0.000u      0.000s      0.000w      9 calls
DFH: compute_K                      :      0.000u      0.000s      0.001w      9 calls
JK: AO2USO                          :      0.000u      0.000s      0.000w      9 calls
HF: Form F                          :      0.000u      0.000s      0.001w      9 calls
HF: Form D                          :      0.000u      0.000s      0.000w      9 calls
HF: DIIS                            :      0.033u      0.000s      0.005w      8 calls
DIISManager::add_entry              :      0.000u      0.000s      0.001w      8 calls
DIISManager::extrapolate            :      0.017u      0.000s      0.001w      8 calls
bMatrix setup                       :      0.017u      0.000s      0.000w      8 calls
bMatrix pseudoinverse               :      0.000u      0.000s      0.000w      8 calls
New vector                          :      0.000u      0.000s      0.000w      8 calls
HF: Form C                          :      0.000u      0.000s      0.002w      8 calls

--------------------------------------------------------------------------------------
DFH: sparsity prep                  :      0.017u      0.017s      0.031w      1 calls
| Libint2ERI::Libint2ERI            :      0.017u      0.017s      0.027w      1 calls
DFH: initialize()                   :      0.033u      0.017s      0.035w      1 calls
| Libint2ERI::Libint2ERI            :      0.000u      0.000s      0.005w      2 calls
| DFH: AO Construction              :      0.017u      0.000s      0.011w      1 calls
| DFH: AO-Met. Contraction          :      0.000u      0.000s      0.001w      1 calls
HF: Form core H                     :      0.000u      0.000s      0.005w      1 calls
HF: Form S/X                        :      0.000u      0.000s      0.002w      1 calls
HF: Guess                           :      0.067u      0.017s      0.054w      1 calls
| SAD Guess                         :      0.067u      0.017s      0.051w      1 calls
HF: Form G                          :      0.000u      0.000s      0.002w      9 calls
| JK: D                             :      0.000u      0.000s      0.000w      9 calls
| JK: USO2AO                        :      0.000u      0.000s      0.000w      9 calls
| JK: JK                            :      0.000u      0.000s      0.001w      9 calls
| | DFH: compute_JK()               :      0.000u      0.000s      0.001w      9 calls
| | | DFH: Grabbing AOs             :      0.000u      0.000s      0.000w      9 calls
| | | DFH: compute_J                :      0.000u      0.000s      0.000w      9 calls
| | | DFH: compute_K                :      0.000u      0.000s      0.001w      9 calls
| JK: AO2USO                        :      0.000u      0.000s      0.000w      9 calls
HF: Form F                          :      0.000u      0.000s      0.001w      9 calls
HF: Form D                          :      0.000u      0.000s      0.000w      9 calls
HF: DIIS                            :      0.033u      0.000s      0.005w      8 calls
| DIISManager::add_entry            :      0.000u      0.000s      0.001w      8 calls
| DIISManager::extrapolate          :      0.017u      0.000s      0.001w      8 calls
| | bMatrix setup                   :      0.017u      0.000s      0.000w      8 calls
| | bMatrix pseudoinverse           :      0.000u      0.000s      0.000w      8 calls
| | New vector                      :      0.000u      0.000s      0.000w      8 calls
HF: Form C                          :      0.000u      0.000s      0.002w      8 calls

**************************************************************************************

Host: eduroam-193-157-251-3.wlan.uio.no

Timers On : Wed May 11 18:01:06 2022
Timers Off: Wed May 11 18:01:11 2022

Wall Time:        5.00 seconds

                                                       Time (seconds)
Module                                       User      System        Wall        Calls

--------------------------------------------------------------------------------------

**************************************************************************************

Host: eduroam-193-157-251-3.wlan.uio.no

Timers On : Wed May 11 18:01:38 2022
Timers Off: Wed May 11 18:01:41 2022

Wall Time:        2.91 seconds

                                                       Time (seconds)
Module                                       User      System        Wall        Calls

--------------------------------------------------------------------------------------

**************************************************************************************

Host: eduroam-193-157-251-3.wlan.uio.no

Timers On : Wed May 11 18:02:02 2022
Timers Off: Wed May 11 18:02:07 2022

Wall Time:        4.06 seconds

                                                       Time (seconds)
Module                                       User      System        Wall        Calls
DFH: sparsity prep                  :      0.017u      0.017s      0.033w      1 calls
Libint2ERI::Libint2ERI              :      0.017u      0.017s      0.032w      3 calls
DFH: initialize()                   :      0.017u      0.017s      0.033w      1 calls
DFH: AO Construction                :      0.000u      0.000s      0.011w      1 calls
DFH: AO-Met. Contraction            :      0.000u      0.000s      0.000w      1 calls
HF: Form core H                     :      0.017u      0.000s      0.007w      1 calls
HF: Form S/X                        :      0.000u      0.000s      0.002w      1 calls
HF: Guess                           :      0.083u      0.033s      0.101w      1 calls
SAD Guess                           :      0.083u      0.033s      0.097w      1 calls
HF: Form G                          :      0.017u      0.000s      0.003w      9 calls
JK: D                               :      0.000u      0.000s      0.000w      9 calls
JK: USO2AO                          :      0.000u      0.000s      0.000w      9 calls
JK: JK                              :      0.017u      0.000s      0.002w      9 calls
DFH: compute_JK()                   :      0.017u      0.000s      0.002w      9 calls
DFH: Grabbing AOs                   :      0.000u      0.000s      0.000w      9 calls
DFH: compute_J                      :      0.000u      0.000s      0.001w      9 calls
DFH: compute_K                      :      0.000u      0.000s      0.001w      9 calls
JK: AO2USO                          :      0.000u      0.000s      0.000w      9 calls
HF: Form F                          :      0.000u      0.000s      0.001w      9 calls
HF: Form D                          :      0.000u      0.000s      0.000w      9 calls
HF: DIIS                            :      0.000u      0.017s      0.006w      8 calls
DIISManager::add_entry              :      0.000u      0.017s      0.001w      8 calls
DIISManager::extrapolate            :      0.000u      0.000s      0.001w      8 calls
bMatrix setup                       :      0.000u      0.000s      0.000w      8 calls
bMatrix pseudoinverse               :      0.000u      0.000s      0.000w      8 calls
New vector                          :      0.000u      0.000s      0.000w      8 calls
HF: Form C                          :      0.000u      0.000s      0.002w      8 calls

--------------------------------------------------------------------------------------
DFH: sparsity prep                  :      0.017u      0.017s      0.033w      1 calls
| Libint2ERI::Libint2ERI            :      0.017u      0.017s      0.028w      1 calls
DFH: initialize()                   :      0.017u      0.017s      0.033w      1 calls
| Libint2ERI::Libint2ERI            :      0.000u      0.000s      0.003w      2 calls
| DFH: AO Construction              :      0.000u      0.000s      0.011w      1 calls
| DFH: AO-Met. Contraction          :      0.000u      0.000s      0.000w      1 calls
HF: Form core H                     :      0.017u      0.000s      0.007w      1 calls
HF: Form S/X                        :      0.000u      0.000s      0.002w      1 calls
HF: Guess                           :      0.083u      0.033s      0.101w      1 calls
| SAD Guess                         :      0.083u      0.033s      0.097w      1 calls
HF: Form G                          :      0.017u      0.000s      0.003w      9 calls
| JK: D                             :      0.000u      0.000s      0.000w      9 calls
| JK: USO2AO                        :      0.000u      0.000s      0.000w      9 calls
| JK: JK                            :      0.017u      0.000s      0.002w      9 calls
| | DFH: compute_JK()               :      0.017u      0.000s      0.002w      9 calls
| | | DFH: Grabbing AOs             :      0.000u      0.000s      0.000w      9 calls
| | | DFH: compute_J                :      0.000u      0.000s      0.001w      9 calls
| | | DFH: compute_K                :      0.000u      0.000s      0.001w      9 calls
| JK: AO2USO                        :      0.000u      0.000s      0.000w      9 calls
HF: Form F                          :      0.000u      0.000s      0.001w      9 calls
HF: Form D                          :      0.000u      0.000s      0.000w      9 calls
HF: DIIS                            :      0.000u      0.017s      0.006w      8 calls
| DIISManager::add_entry            :      0.000u      0.017s      0.001w      8 calls
| DIISManager::extrapolate          :      0.000u      0.000s      0.001w      8 calls
| | bMatrix setup                   :      0.000u      0.000s      0.000w      8 calls
| | bMatrix pseudoinverse           :      0.000u      0.000s      0.000w      8 calls
| | New vector                      :      0.000u      0.000s      0.000w      8 calls
HF: Form C                          :      0.000u      0.000s      0.002w      8 calls

**************************************************************************************

Host: eduroam-193-157-251-3.wlan.uio.no

Timers On : Wed May 11 18:02:58 2022
Timers Off: Wed May 11 18:03:01 2022

Wall Time:        2.96 seconds

                                                       Time (seconds)
Module                                       User      System        Wall        Calls
Total PK formation time             :      0.000u      0.000s      0.016w      1 calls
Libint2ERI::Libint2ERI              :      0.000u      0.000s      0.011w      2 calls
HF: Form core H                     :      0.017u      0.000s      0.003w      1 calls
HF: Form S/X                        :      0.000u      0.000s      0.000w      1 calls
HF: Guess                           :      0.033u      0.000s      0.035w      1 calls
SAD Guess                           :      0.033u      0.000s      0.033w      1 calls
HF: Form G                          :      0.000u      0.000s      0.001w      8 calls
JK: D                               :      0.000u      0.000s      0.000w      8 calls
JK: USO2AO                          :      0.000u      0.000s      0.001w      8 calls
JK: JK                              :      0.000u      0.000s      0.000w      8 calls
PK computes JK                      :      0.000u      0.000s      0.000w      8 calls
JK: AO2USO                          :      0.000u      0.000s      0.000w      8 calls
HF: Form F                          :      0.000u      0.000s      0.000w      8 calls
HF: Form D                          :      0.000u      0.000s      0.000w      8 calls
HF: DIIS                            :      0.000u      0.000s      0.004w      7 calls
DIISManager::add_entry              :      0.000u      0.000s      0.001w      7 calls
DIISManager::extrapolate            :      0.000u      0.000s      0.000w      7 calls
bMatrix setup                       :      0.000u      0.000s      0.000w      7 calls
bMatrix pseudoinverse               :      0.000u      0.000s      0.000w      7 calls
New vector                          :      0.000u      0.000s      0.000w      7 calls
HF: Form C                          :      0.000u      0.000s      0.001w      7 calls

--------------------------------------------------------------------------------------
Total PK formation time             :      0.000u      0.000s      0.016w      1 calls
| Libint2ERI::Libint2ERI            :      0.000u      0.000s      0.011w      2 calls
HF: Form core H                     :      0.017u      0.000s      0.003w      1 calls
HF: Form S/X                        :      0.000u      0.000s      0.000w      1 calls
HF: Guess                           :      0.033u      0.000s      0.035w      1 calls
| SAD Guess                         :      0.033u      0.000s      0.033w      1 calls
HF: Form G                          :      0.000u      0.000s      0.001w      8 calls
| JK: D                             :      0.000u      0.000s      0.000w      8 calls
| JK: USO2AO                        :      0.000u      0.000s      0.001w      8 calls
| JK: JK                            :      0.000u      0.000s      0.000w      8 calls
| | PK computes JK                  :      0.000u      0.000s      0.000w      8 calls
| JK: AO2USO                        :      0.000u      0.000s      0.000w      8 calls
HF: Form F                          :      0.000u      0.000s      0.000w      8 calls
HF: Form D                          :      0.000u      0.000s      0.000w      8 calls
HF: DIIS                            :      0.000u      0.000s      0.004w      7 calls
| DIISManager::add_entry            :      0.000u      0.000s      0.001w      7 calls
| DIISManager::extrapolate          :      0.000u      0.000s      0.000w      7 calls
| | bMatrix setup                   :      0.000u      0.000s      0.000w      7 calls
| | bMatrix pseudoinverse           :      0.000u      0.000s      0.000w      7 calls
| | New vector                      :      0.000u      0.000s      0.000w      7 calls
HF: Form C                          :      0.000u      0.000s      0.001w      7 calls

**************************************************************************************

Host: eduroam-193-157-251-3.wlan.uio.no

Timers On : Wed May 11 18:03:19 2022
Timers Off: Wed May 11 18:03:22 2022

Wall Time:        2.84 seconds

                                                       Time (seconds)
Module                                       User      System        Wall        Calls
Total PK formation time             :      0.000u      0.000s      0.005w      1 calls
Libint2ERI::Libint2ERI              :      0.000u      0.000s      0.001w      2 calls
HF: Form core H                     :      0.000u      0.000s      0.001w      1 calls
HF: Form S/X                        :      0.000u      0.000s      0.000w      1 calls
HF: Guess                           :      0.050u      0.000s      0.029w      1 calls
SAD Guess                           :      0.050u      0.000s      0.027w      1 calls
HF: Form G                          :      0.000u      0.000s      0.001w      8 calls
JK: D                               :      0.000u      0.000s      0.000w      8 calls
JK: USO2AO                          :      0.000u      0.000s      0.000w      8 calls
JK: JK                              :      0.000u      0.000s      0.000w      8 calls
PK computes JK                      :      0.000u      0.000s      0.000w      8 calls
JK: AO2USO                          :      0.000u      0.000s      0.000w      8 calls
HF: Form F                          :      0.000u      0.000s      0.000w      8 calls
HF: Form D                          :      0.000u      0.000s      0.000w      8 calls
HF: DIIS                            :      0.000u      0.000s      0.003w      7 calls
DIISManager::add_entry              :      0.000u      0.000s      0.001w      7 calls
DIISManager::extrapolate            :      0.000u      0.000s      0.000w      7 calls
bMatrix setup                       :      0.000u      0.000s      0.000w      7 calls
bMatrix pseudoinverse               :      0.000u      0.000s      0.000w      7 calls
New vector                          :      0.000u      0.000s      0.000w      7 calls
HF: Form C                          :      0.000u      0.000s      0.001w      7 calls

--------------------------------------------------------------------------------------
Total PK formation time             :      0.000u      0.000s      0.005w      1 calls
| Libint2ERI::Libint2ERI            :      0.000u      0.000s      0.001w      2 calls
HF: Form core H                     :      0.000u      0.000s      0.001w      1 calls
HF: Form S/X                        :      0.000u      0.000s      0.000w      1 calls
HF: Guess                           :      0.050u      0.000s      0.029w      1 calls
| SAD Guess                         :      0.050u      0.000s      0.027w      1 calls
HF: Form G                          :      0.000u      0.000s      0.001w      8 calls
| JK: D                             :      0.000u      0.000s      0.000w      8 calls
| JK: USO2AO                        :      0.000u      0.000s      0.000w      8 calls
| JK: JK                            :      0.000u      0.000s      0.000w      8 calls
| | PK computes JK                  :      0.000u      0.000s      0.000w      8 calls
| JK: AO2USO                        :      0.000u      0.000s      0.000w      8 calls
HF: Form F                          :      0.000u      0.000s      0.000w      8 calls
HF: Form D                          :      0.000u      0.000s      0.000w      8 calls
HF: DIIS                            :      0.000u      0.000s      0.003w      7 calls
| DIISManager::add_entry            :      0.000u      0.000s      0.001w      7 calls
| DIISManager::extrapolate          :      0.000u      0.000s      0.000w      7 calls
| | bMatrix setup                   :      0.000u      0.000s      0.000w      7 calls
| | bMatrix pseudoinverse           :      0.000u      0.000s      0.000w      7 calls
| | New vector                      :      0.000u      0.000s      0.000w      7 calls
HF: Form C                          :      0.000u      0.000s      0.001w      7 calls

**************************************************************************************

Host: eduroam-193-157-251-3.wlan.uio.no

Timers On : Wed May 11 18:05:49 2022
Timers Off: Wed May 11 18:05:52 2022

Wall Time:        3.06 seconds

                                                       Time (seconds)
Module                                       User      System        Wall        Calls
Total PK formation time             :      0.000u      0.017s      0.020w      1 calls
Libint2ERI::Libint2ERI              :      0.000u      0.017s      0.015w      2 calls
HF: Form core H                     :      0.000u      0.000s      0.002w      1 calls
HF: Form S/X                        :      0.000u      0.000s      0.000w      1 calls
HF: Guess                           :      0.033u      0.000s      0.025w      1 calls
SAD Guess                           :      0.017u      0.000s      0.023w      1 calls
HF: Form G                          :      0.000u      0.000s      0.000w      3 calls
JK: D                               :      0.000u      0.000s      0.000w      3 calls
JK: USO2AO                          :      0.000u      0.000s      0.000w      3 calls
JK: JK                              :      0.000u      0.000s      0.000w      3 calls
PK computes JK                      :      0.000u      0.000s      0.000w      3 calls
JK: AO2USO                          :      0.000u      0.000s      0.000w      3 calls
HF: Form F                          :      0.000u      0.000s      0.000w      3 calls
HF: Form D                          :      0.000u      0.000s      0.000w      3 calls
HF: DIIS                            :      0.000u      0.000s      0.002w      2 calls
DIISManager::add_entry              :      0.000u      0.000s      0.000w      2 calls
DIISManager::extrapolate            :      0.000u      0.000s      0.000w      2 calls
bMatrix setup                       :      0.000u      0.000s      0.000w      2 calls
bMatrix pseudoinverse               :      0.000u      0.000s      0.000w      2 calls
New vector                          :      0.000u      0.000s      0.000w      2 calls
HF: Form C                          :      0.000u      0.000s      0.000w      2 calls

--------------------------------------------------------------------------------------
Total PK formation time             :      0.000u      0.017s      0.020w      1 calls
| Libint2ERI::Libint2ERI            :      0.000u      0.017s      0.015w      2 calls
HF: Form core H                     :      0.000u      0.000s      0.002w      1 calls
HF: Form S/X                        :      0.000u      0.000s      0.000w      1 calls
HF: Guess                           :      0.033u      0.000s      0.025w      1 calls
| SAD Guess                         :      0.017u      0.000s      0.023w      1 calls
HF: Form G                          :      0.000u      0.000s      0.000w      3 calls
| JK: D                             :      0.000u      0.000s      0.000w      3 calls
| JK: USO2AO                        :      0.000u      0.000s      0.000w      3 calls
| JK: JK                            :      0.000u      0.000s      0.000w      3 calls
| | PK computes JK                  :      0.000u      0.000s      0.000w      3 calls
| JK: AO2USO                        :      0.000u      0.000s      0.000w      3 calls
HF: Form F                          :      0.000u      0.000s      0.000w      3 calls
HF: Form D                          :      0.000u      0.000s      0.000w      3 calls
HF: DIIS                            :      0.000u      0.000s      0.002w      2 calls
| DIISManager::add_entry            :      0.000u      0.000s      0.000w      2 calls
| DIISManager::extrapolate          :      0.000u      0.000s      0.000w      2 calls
| | bMatrix setup                   :      0.000u      0.000s      0.000w      2 calls
| | bMatrix pseudoinverse           :      0.000u      0.000s      0.000w      2 calls
| | New vector                      :      0.000u      0.000s      0.000w      2 calls
HF: Form C                          :      0.000u      0.000s      0.000w      2 calls

**************************************************************************************

Host: eduroam-193-157-251-3.wlan.uio.no

Timers On : Wed May 11 18:06:06 2022
Timers Off: Wed May 11 18:06:09 2022

Wall Time:        2.83 seconds

                                                       Time (seconds)
Module                                       User      System        Wall        Calls
Total PK formation time             :      0.000u      0.000s      0.004w      1 calls
Libint2ERI::Libint2ERI              :      0.000u      0.000s      0.001w      2 calls
HF: Form core H                     :      0.000u      0.000s      0.001w      1 calls
HF: Form S/X                        :      0.000u      0.000s      0.000w      1 calls
HF: Guess                           :      0.017u      0.000s      0.014w      1 calls
SAD Guess                           :      0.017u      0.000s      0.012w      1 calls
HF: Form G                          :      0.000u      0.000s      0.000w      3 calls
JK: D                               :      0.000u      0.000s      0.000w      3 calls
JK: USO2AO                          :      0.000u      0.000s      0.000w      3 calls
JK: JK                              :      0.000u      0.000s      0.000w      3 calls
PK computes JK                      :      0.000u      0.000s      0.000w      3 calls
JK: AO2USO                          :      0.000u      0.000s      0.000w      3 calls
HF: Form F                          :      0.000u      0.000s      0.000w      3 calls
HF: Form D                          :      0.000u      0.000s      0.000w      3 calls
HF: DIIS                            :      0.000u      0.000s      0.001w      2 calls
DIISManager::add_entry              :      0.000u      0.000s      0.000w      2 calls
DIISManager::extrapolate            :      0.000u      0.000s      0.000w      2 calls
bMatrix setup                       :      0.000u      0.000s      0.000w      2 calls
bMatrix pseudoinverse               :      0.000u      0.000s      0.000w      2 calls
New vector                          :      0.000u      0.000s      0.000w      2 calls
HF: Form C                          :      0.000u      0.000s      0.000w      2 calls

--------------------------------------------------------------------------------------
Total PK formation time             :      0.000u      0.000s      0.004w      1 calls
| Libint2ERI::Libint2ERI            :      0.000u      0.000s      0.001w      2 calls
HF: Form core H                     :      0.000u      0.000s      0.001w      1 calls
HF: Form S/X                        :      0.000u      0.000s      0.000w      1 calls
HF: Guess                           :      0.017u      0.000s      0.014w      1 calls
| SAD Guess                         :      0.017u      0.000s      0.012w      1 calls
HF: Form G                          :      0.000u      0.000s      0.000w      3 calls
| JK: D                             :      0.000u      0.000s      0.000w      3 calls
| JK: USO2AO                        :      0.000u      0.000s      0.000w      3 calls
| JK: JK                            :      0.000u      0.000s      0.000w      3 calls
| | PK computes JK                  :      0.000u      0.000s      0.000w      3 calls
| JK: AO2USO                        :      0.000u      0.000s      0.000w      3 calls
HF: Form F                          :      0.000u      0.000s      0.000w      3 calls
HF: Form D                          :      0.000u      0.000s      0.000w      3 calls
HF: DIIS                            :      0.000u      0.000s      0.001w      2 calls
| DIISManager::add_entry            :      0.000u      0.000s      0.000w      2 calls
| DIISManager::extrapolate          :      0.000u      0.000s      0.000w      2 calls
| | bMatrix setup                   :      0.000u      0.000s      0.000w      2 calls
| | bMatrix pseudoinverse           :      0.000u      0.000s      0.000w      2 calls
| | New vector                      :      0.000u      0.000s      0.000w      2 calls
HF: Form C                          :      0.000u      0.000s      0.000w      2 calls

**************************************************************************************

Host: eduroam-193-157-251-3.wlan.uio.no

Timers On : Wed May 11 18:07:26 2022
Timers Off: Wed May 11 18:07:28 2022

Wall Time:        2.07 seconds

                                                       Time (seconds)
Module                                       User      System        Wall        Calls

--------------------------------------------------------------------------------------

**************************************************************************************

Host: eduroam-193-157-251-3.wlan.uio.no

Timers On : Wed May 11 18:07:49 2022
Timers Off: Wed May 11 18:07:51 2022

Wall Time:        2.19 seconds

                                                       Time (seconds)
Module                                       User      System        Wall        Calls
Total PK formation time             :      0.000u      0.000s      0.004w      1 calls
Libint2ERI::Libint2ERI              :      0.000u      0.000s      0.001w      2 calls
HF: Form core H                     :      0.017u      0.000s      0.001w      1 calls
HF: Form S/X                        :      0.000u      0.000s      0.000w      1 calls
HF: Guess                           :      0.017u      0.000s      0.014w      1 calls
SAD Guess                           :      0.017u      0.000s      0.012w      1 calls
HF: Form G                          :      0.000u      0.000s      0.000w      3 calls
JK: D                               :      0.000u      0.000s      0.000w      3 calls
JK: USO2AO                          :      0.000u      0.000s      0.000w      3 calls
JK: JK                              :      0.000u      0.000s      0.000w      3 calls
PK computes JK                      :      0.000u      0.000s      0.000w      3 calls
JK: AO2USO                          :      0.000u      0.000s      0.000w      3 calls
HF: Form F                          :      0.000u      0.000s      0.000w      3 calls
HF: Form D                          :      0.000u      0.000s      0.000w      3 calls
HF: DIIS                            :      0.000u      0.000s      0.001w      2 calls
DIISManager::add_entry              :      0.000u      0.000s      0.000w      2 calls
DIISManager::extrapolate            :      0.000u      0.000s      0.000w      2 calls
bMatrix setup                       :      0.000u      0.000s      0.000w      2 calls
bMatrix pseudoinverse               :      0.000u      0.000s      0.000w      2 calls
New vector                          :      0.000u      0.000s      0.000w      2 calls
HF: Form C                          :      0.000u      0.000s      0.000w      2 calls

--------------------------------------------------------------------------------------
Total PK formation time             :      0.000u      0.000s      0.004w      1 calls
| Libint2ERI::Libint2ERI            :      0.000u      0.000s      0.001w      2 calls
HF: Form core H                     :      0.017u      0.000s      0.001w      1 calls
HF: Form S/X                        :      0.000u      0.000s      0.000w      1 calls
HF: Guess                           :      0.017u      0.000s      0.014w      1 calls
| SAD Guess                         :      0.017u      0.000s      0.012w      1 calls
HF: Form G                          :      0.000u      0.000s      0.000w      3 calls
| JK: D                             :      0.000u      0.000s      0.000w      3 calls
| JK: USO2AO                        :      0.000u      0.000s      0.000w      3 calls
| JK: JK                            :      0.000u      0.000s      0.000w      3 calls
| | PK computes JK                  :      0.000u      0.000s      0.000w      3 calls
| JK: AO2USO                        :      0.000u      0.000s      0.000w      3 calls
HF: Form F                          :      0.000u      0.000s      0.000w      3 calls
HF: Form D                          :      0.000u      0.000s      0.000w      3 calls
HF: DIIS                            :      0.000u      0.000s      0.001w      2 calls
| DIISManager::add_entry            :      0.000u      0.000s      0.000w      2 calls
| DIISManager::extrapolate          :      0.000u      0.000s      0.000w      2 calls
| | bMatrix setup                   :      0.000u      0.000s      0.000w      2 calls
| | bMatrix pseudoinverse           :      0.000u      0.000s      0.000w      2 calls
| | New vector                      :      0.000u      0.000s      0.000w      2 calls
HF: Form C                          :      0.000u      0.000s      0.000w      2 calls

**************************************************************************************

Host: eduroam-193-157-251-3.wlan.uio.no

Timers On : Wed May 11 18:08:13 2022
Timers Off: Wed May 11 18:08:15 2022

Wall Time:        2.50 seconds

                                                       Time (seconds)
Module                                       User      System        Wall        Calls
Total PK formation time             :      0.000u      0.000s      0.004w      1 calls
Libint2ERI::Libint2ERI              :      0.000u      0.000s      0.001w      3 calls
HF: Form core H                     :      0.000u      0.000s      0.001w      1 calls
HF: Form S/X                        :      0.000u      0.000s      0.000w      1 calls
HF: Guess                           :      0.033u      0.000s      0.014w      1 calls
SAD Guess                           :      0.017u      0.000s      0.012w      1 calls
HF: Form G                          :      0.000u      0.000s      0.000w      3 calls
JK: D                               :      0.000u      0.000s      0.000w      3 calls
JK: USO2AO                          :      0.000u      0.000s      0.000w      3 calls
JK: JK                              :      0.000u      0.000s      0.000w      3 calls
PK computes JK                      :      0.000u      0.000s      0.000w      3 calls
JK: AO2USO                          :      0.000u      0.000s      0.000w      3 calls
HF: Form F                          :      0.000u      0.000s      0.000w      3 calls
HF: Form D                          :      0.000u      0.000s      0.000w      3 calls
[...]
DIISManager::add_entry              :      0.000u      0.000s      0.000w      2 calls
DIISManager::extrapolate            :      0.000u      0.000s      0.000w      2 calls
bMatrix setup                       :      0.000u      0.000s      0.000w      2 calls
bMatrix pseudoinverse               :      0.000u      0.000s      0.000w      2 calls
New vector                          :      0.000u      0.000s      0.000w      2 calls
HF: Form C                          :      0.000u      0.000s      0.000w      2 calls
CIWave: CIvect write                :      0.000u      0.000s      0.000w     14 calls
CIWave: CIvect read                 :      0.000u      0.000s      0.000w     39 calls
CIWave: s2                          :      0.000u      0.000s      0.000w      4 calls
CIWave: s3                          :      0.000u      0.000s      0.000w      8 calls

--------------------------------------------------------------------------------------
Total PK formation time             :      0.017u      0.017s      0.016w      1 calls
| Libint2ERI::Libint2ERI            :      0.000u      0.017s      0.012w      2 calls
HF: Form core H                     :      0.000u      0.000s      0.002w      1 calls
HF: Form S/X                        :      0.000u      0.000s      0.000w      1 calls
HF: Guess                           :      0.017u      0.000s      0.020w      1 calls
| SAD Guess                         :      0.017u      0.000s      0.017w      1 calls
HF: Form G                          :      0.000u      0.000s      0.000w      3 calls
| JK: D                             :      0.000u      0.000s      0.000w      3 calls
| JK: USO2AO                        :      0.000u      0.000s      0.000w      3 calls
| JK: JK                            :      0.000u      0.000s      0.000w      3 calls
| | PK computes JK                  :      0.000u      0.000s      0.000w      3 calls
| JK: AO2USO                        :      0.000u      0.000s      0.000w      3 calls
HF: Form F                          :      0.000u      0.000s      0.000w      3 calls
HF: Form D                          :      0.000u      0.000s      0.000w      3 calls
HF: DIIS                            :      0.000u      0.000s      0.001w      2 calls
| DIISManager::add_entry            :      0.000u      0.000s      0.000w      2 calls
| DIISManager::extrapolate          :      0.000u      0.000s      0.000w      2 calls
| | bMatrix setup                   :      0.000u      0.000s      0.000w      2 calls
| | bMatrix pseudoinverse           :      0.000u      0.000s      0.000w      2 calls
| | New vector                      :      0.000u      0.000s      0.000w      2 calls
HF: Form C                          :      0.000u      0.000s      0.000w      2 calls
Libint2ERI::Libint2ERI              :      0.000u      0.000s      0.000w      1 calls
CIWave: CIvect write                :      0.000u      0.000s      0.000w     14 calls
CIWave: CIvect read                 :      0.000u      0.000s      0.000w     39 calls
CIWave: s2                          :      0.000u      0.000s      0.000w      4 calls
CIWave: s3                          :      0.000u      0.000s      0.000w      8 calls

**************************************************************************************

Host: eduroam-193-157-251-3.wlan.uio.no

Timers On : Wed May 11 20:21:49 2022
Timers Off: Wed May 11 20:21:52 2022

Wall Time:        2.83 seconds

                                                       Time (seconds)
Module                                       User      System        Wall        Calls

--------------------------------------------------------------------------------------

**************************************************************************************

Host: eduroam-193-157-251-3.wlan.uio.no

Timers On : Wed May 11 20:22:03 2022
Timers Off: Wed May 11 20:22:06 2022

Wall Time:        2.87 seconds

                                                       Time (seconds)
Module                                       User      System        Wall        Calls
Total PK formation time             :      0.000u      0.000s      0.017w      1 calls
Libint2ERI::Libint2ERI              :      0.000u      0.000s      0.011w      3 calls
HF: Form core H                     :      0.000u      0.000s      0.002w      1 calls
HF: Form S/X                        :      0.000u      0.000s      0.001w      1 calls
HF: Guess                           :      0.033u      0.000s      0.024w      1 calls
SAD Guess                           :      0.017u      0.000s      0.022w      1 calls
HF: Form G                          :      0.000u      0.000s      0.000w      3 calls
JK: D                               :      0.000u      0.000s      0.000w      3 calls
JK: USO2AO                          :      0.000u      0.000s      0.000w      3 calls
JK: JK                              :      0.000u      0.000s      0.000w      3 calls
PK computes JK                      :      0.000u      0.000s      0.000w      3 calls
JK: AO2USO                          :      0.000u      0.000s      0.000w      3 calls
HF: Form F                          :      0.000u      0.000s      0.000w      3 calls
HF: Form D                          :      0.000u      0.000s      0.000w      3 calls
HF: DIIS                            :      0.000u      0.017s      0.002w      2 calls
DIISManager::add_entry              :      0.000u      0.017s      0.000w      2 calls
DIISManager::extrapolate            :      0.000u      0.000s      0.000w      2 calls
bMatrix setup                       :      0.000u      0.000s      0.000w      2 calls
bMatrix pseudoinverse               :      0.000u      0.000s      0.000w      2 calls
New vector                          :      0.000u      0.000s      0.000w      2 calls
HF: Form C                          :      0.000u      0.000s      0.001w      2 calls
CIWave: CIvect write                :      0.000u      0.000s      0.000w     18 calls
CIWave: CIvect read                 :      0.000u      0.000s      0.000w     52 calls
CIWave: s2                          :      0.000u      0.000s      0.000w      3 calls
CIWave: s3                          :      0.000u      0.000s      0.000w      6 calls

--------------------------------------------------------------------------------------
Total PK formation time             :      0.000u      0.000s      0.017w      1 calls
| Libint2ERI::Libint2ERI            :      0.000u      0.000s      0.011w      2 calls
HF: Form core H                     :      0.000u      0.000s      0.002w      1 calls
HF: Form S/X                        :      0.000u      0.000s      0.001w      1 calls
HF: Guess                           :      0.033u      0.000s      0.024w      1 calls
| SAD Guess                         :      0.017u      0.000s      0.022w      1 calls
HF: Form G                          :      0.000u      0.000s      0.000w      3 calls
| JK: D                             :      0.000u      0.000s      0.000w      3 calls
| JK: USO2AO                        :      0.000u      0.000s      0.000w      3 calls
| JK: JK                            :      0.000u      0.000s      0.000w      3 calls
| | PK computes JK                  :      0.000u      0.000s      0.000w      3 calls
| JK: AO2USO                        :      0.000u      0.000s      0.000w      3 calls
HF: Form F                          :      0.000u      0.000s      0.000w      3 calls
HF: Form D                          :      0.000u      0.000s      0.000w      3 calls
HF: DIIS                            :      0.000u      0.017s      0.002w      2 calls
| DIISManager::add_entry            :      0.000u      0.017s      0.000w      2 calls
| DIISManager::extrapolate          :      0.000u      0.000s      0.000w      2 calls
| | bMatrix setup                   :      0.000u      0.000s      0.000w      2 calls
| | bMatrix pseudoinverse           :      0.000u      0.000s      0.000w      2 calls
| | New vector                      :      0.000u      0.000s      0.000w      2 calls
HF: Form C                          :      0.000u      0.000s      0.001w      2 calls
Libint2ERI::Libint2ERI              :      0.000u      0.000s      0.000w      1 calls
CIWave: CIvect write                :      0.000u      0.000s      0.000w     18 calls
CIWave: CIvect read                 :      0.000u      0.000s      0.000w     52 calls
CIWave: s2                          :      0.000u      0.000s      0.000w      3 calls
CIWave: s3                          :      0.000u      0.000s      0.000w      6 calls

**************************************************************************************

Host: eduroam-193-157-251-3.wlan.uio.no

Timers On : Wed May 11 20:22:44 2022
Timers Off: Wed May 11 20:22:47 2022

Wall Time:        2.91 seconds

                                                       Time (seconds)
Module                                       User      System        Wall        Calls
Total PK formation time             :      0.017u      0.000s      0.018w      1 calls
Libint2ERI::Libint2ERI              :      0.000u      0.000s      0.012w      3 calls
HF: Form core H                     :      0.000u      0.000s      0.002w      1 calls
HF: Form S/X                        :      0.000u      0.000s      0.000w      1 calls
HF: Guess                           :      0.017u      0.000s      0.021w      1 calls
SAD Guess                           :      0.017u      0.000s      0.019w      1 calls
HF: Form G                          :      0.000u      0.000s      0.000w      3 calls
JK: D                               :      0.000u      0.000s      0.000w      3 calls
JK: USO2AO                          :      0.000u      0.000s      0.000w      3 calls
JK: JK                              :      0.000u      0.000s      0.000w      3 calls
PK computes JK                      :      0.000u      0.000s      0.000w      3 calls
JK: AO2USO                          :      0.000u      0.000s      0.000w      3 calls
HF: Form F                          :      0.000u      0.017s      0.000w      3 calls
HF: Form D                          :      0.000u      0.000s      0.000w      3 calls
HF: DIIS                            :      0.000u      0.000s      0.002w      2 calls
DIISManager::add_entry              :      0.000u      0.000s      0.000w      2 calls
DIISManager::extrapolate            :      0.000u      0.000s      0.000w      2 calls
bMatrix setup                       :      0.000u      0.000s      0.000w      2 calls
bMatrix pseudoinverse               :      0.000u      0.000s      0.000w      2 calls
New vector                          :      0.000u      0.000s      0.000w      2 calls
HF: Form C                          :      0.000u      0.000s      0.000w      2 calls
CIWave: CIvect write                :      0.000u      0.000s      0.000w     18 calls
CIWave: CIvect read                 :      0.000u      0.000s      0.000w     52 calls
CIWave: s2                          :      0.000u      0.000s      0.000w      3 calls
CIWave: s3                          :      0.000u      0.000s      0.000w      6 calls

--------------------------------------------------------------------------------------
Total PK formation time             :      0.017u      0.000s      0.018w      1 calls
| Libint2ERI::Libint2ERI            :      0.000u      0.000s      0.012w      2 calls
HF: Form core H                     :      0.000u      0.000s      0.002w      1 calls
HF: Form S/X                        :      0.000u      0.000s      0.000w      1 calls
HF: Guess                           :      0.017u      0.000s      0.021w      1 calls
| SAD Guess                         :      0.017u      0.000s      0.019w      1 calls
HF: Form G                          :      0.000u      0.000s      0.000w      3 calls
| JK: D                             :      0.000u      0.000s      0.000w      3 calls
| JK: USO2AO                        :      0.000u      0.000s      0.000w      3 calls
| JK: JK                            :      0.000u      0.000s      0.000w      3 calls
| | PK computes JK                  :      0.000u      0.000s      0.000w      3 calls
| JK: AO2USO                        :      0.000u      0.000s      0.000w      3 calls
HF: Form F                          :      0.000u      0.017s      0.000w      3 calls
HF: Form D                          :      0.000u      0.000s      0.000w      3 calls
HF: DIIS                            :      0.000u      0.000s      0.002w      2 calls
| DIISManager::add_entry            :      0.000u      0.000s      0.000w      2 calls
| DIISManager::extrapolate          :      0.000u      0.000s      0.000w      2 calls
| | bMatrix setup                   :      0.000u      0.000s      0.000w      2 calls
| | bMatrix pseudoinverse           :      0.000u      0.000s      0.000w      2 calls
| | New vector                      :      0.000u      0.000s      0.000w      2 calls
HF: Form C                          :      0.000u      0.000s      0.000w      2 calls
Libint2ERI::Libint2ERI              :      0.000u      0.000s      0.000w      1 calls
CIWave: CIvect write                :      0.000u      0.000s      0.000w     18 calls
CIWave: CIvect read                 :      0.000u      0.000s      0.000w     52 calls
CIWave: s2                          :      0.000u      0.000s      0.000w      3 calls
CIWave: s3                          :      0.000u      0.000s      0.000w      6 calls

**************************************************************************************

Host: eduroam-193-157-251-3.wlan.uio.no

Timers On : Wed May 11 20:23:19 2022
Timers Off: Wed May 11 20:23:22 2022

Wall Time:        2.89 seconds

                                                       Time (seconds)
Module                                       User      System        Wall        Calls
Total PK formation time             :      0.017u      0.000s      0.006w      1 calls
Libint2ERI::Libint2ERI              :      0.000u      0.000s      0.001w      3 calls
HF: Form core H                     :      0.000u      0.000s      0.002w      1 calls
HF: Form S/X                        :      0.000u      0.000s      0.000w      1 calls
HF: Guess                           :      0.017u      0.000s      0.014w      1 calls
SAD Guess                           :      0.017u      0.000s      0.013w      1 calls
HF: Form G                          :      0.000u      0.000s      0.000w      3 calls
JK: D                               :      0.000u      0.000s      0.000w      3 calls
JK: USO2AO                          :      0.000u      0.000s      0.000w      3 calls
JK: JK                              :      0.000u      0.000s      0.000w      3 calls
PK computes JK                      :      0.000u      0.000s      0.000w      3 calls
JK: AO2USO                          :      0.000u      0.000s      0.000w      3 calls
HF: Form F                          :      0.000u      0.000s      0.000w      3 calls
HF: Form D                          :      0.000u      0.000s      0.000w      3 calls
HF: DIIS                            :      0.000u      0.000s      0.001w      2 calls
DIISManager::add_entry              :      0.000u      0.000s      0.000w      2 calls
DIISManager::extrapolate            :      0.000u      0.000s      0.000w      2 calls
bMatrix setup                       :      0.000u      0.000s      0.000w      2 calls
bMatrix pseudoinverse               :      0.000u      0.000s      0.000w      2 calls
New vector                          :      0.000u      0.000s      0.000w      2 calls
HF: Form C                          :      0.000u      0.000s      0.000w      2 calls
CIWave: CIvect write                :      0.000u      0.000s      0.000w     18 calls
CIWave: CIvect read                 :      0.000u      0.000s      0.000w     52 calls
CIWave: s2                          :      0.000u      0.000s      0.000w      3 calls
CIWave: s3                          :      0.000u      0.000s      0.000w      6 calls

--------------------------------------------------------------------------------------
Total PK formation time             :      0.017u      0.000s      0.006w      1 calls
| Libint2ERI::Libint2ERI            :      0.000u      0.000s      0.001w      2 calls
HF: Form core H                     :      0.000u      0.000s      0.002w      1 calls
HF: Form S/X                        :      0.000u      0.000s      0.000w      1 calls
HF: Guess                           :      0.017u      0.000s      0.014w      1 calls
| SAD Guess                         :      0.017u      0.000s      0.013w      1 calls
HF: Form G                          :      0.000u      0.000s      0.000w      3 calls
| JK: D                             :      0.000u      0.000s      0.000w      3 calls
| JK: USO2AO                        :      0.000u      0.000s      0.000w      3 calls
| JK: JK                            :      0.000u      0.000s      0.000w      3 calls
| | PK computes JK                  :      0.000u      0.000s      0.000w      3 calls
| JK: AO2USO                        :      0.000u      0.000s      0.000w      3 calls
HF: Form F                          :      0.000u      0.000s      0.000w      3 calls
HF: Form D                          :      0.000u      0.000s      0.000w      3 calls
HF: DIIS                            :      0.000u      0.000s      0.001w      2 calls
| DIISManager::add_entry            :      0.000u      0.000s      0.000w      2 calls
| DIISManager::extrapolate          :      0.000u      0.000s      0.000w      2 calls
| | bMatrix setup                   :      0.000u      0.000s      0.000w      2 calls
| | bMatrix pseudoinverse           :      0.000u      0.000s      0.000w      2 calls
| | New vector                      :      0.000u      0.000s      0.000w      2 calls
HF: Form C                          :      0.000u      0.000s      0.000w      2 calls
Libint2ERI::Libint2ERI              :      0.000u      0.000s      0.000w      1 calls
CIWave: CIvect write                :      0.000u      0.000s      0.000w     18 calls
CIWave: CIvect read                 :      0.000u      0.000s      0.000w     52 calls
CIWave: s2                          :      0.000u      0.000s      0.000w      3 calls
CIWave: s3                          :      0.000u      0.000s      0.000w      6 calls

**************************************************************************************

Host: eduroam-193-157-251-3.wlan.uio.no

Timers On : Wed May 11 20:26:47 2022
Timers Off: Wed May 11 20:26:49 2022

Wall Time:        2.17 seconds

                                                       Time (seconds)
Module                                       User      System        Wall        Calls

--------------------------------------------------------------------------------------

**************************************************************************************

Host: eduroam-193-157-251-3.wlan.uio.no

Timers On : Wed May 11 20:30:03 2022
Timers Off: Wed May 11 20:30:06 2022

Wall Time:        2.67 seconds

                                                       Time (seconds)
Module                                       User      System        Wall        Calls

--------------------------------------------------------------------------------------

**************************************************************************************

Host: eduroam-193-157-251-3.wlan.uio.no

Timers On : Wed May 11 20:30:40 2022
Timers Off: Wed May 11 20:30:43 2022

Wall Time:        3.36 seconds

                                                       Time (seconds)
Module                                       User      System        Wall        Calls

--------------------------------------------------------------------------------------

**************************************************************************************
