
Host: Philips-MacBook-Pro.local

Timers On : Sat Jun 11 18:08:02 2022
Timers Off: Sat Jun 11 18:08:07 2022

Wall Time:        4.42 seconds

                                                       Time (seconds)
Module                                       User      System        Wall        Calls

--------------------------------------------------------------------------------------

**************************************************************************************
